     20
 i =        1, E =       -55.2067541154
  B         9.7198219688       11.4606611316       11.4304466444
  B         8.5323100546       10.8131472798       12.6263912354
  B         7.9450337076       13.5522863201       10.0662728514
  B         9.6746202919        9.1648074596       13.1462723963
  B        10.7982442610        7.8931368317       13.1905969473
  B        11.0789664659        8.6141738911       11.4141983012
  B        11.3814601050       10.9230276926        7.2882517772
  B        10.7782989494        9.9531032309        8.7232372645
  B        10.9149422162        8.5201336608        9.6411148145
  B         9.9949628009       10.3328142599       12.5499780500
  B         8.8252248148       13.5741448610        8.6393259568
  B         9.5613336917       11.2495791251        9.8025228872
  B        10.1894283370       11.5778697326        8.3837751881
  B        10.3986772149       12.0129195056        6.7801201628
  B        12.1330674760        7.5858554203       10.9149230660
  B         8.8561889361       12.4262334742        6.9436686904
  B        11.4495060335        6.4104651658       11.6780576534
  B         8.5806986286       12.1594490638       13.2543215255
  B         8.3703832408       12.7059905496       11.7691067772
  B        10.1499335045       12.7334032012       10.0207042632
      20
 i =        2, E =       -55.3010338983
  B         9.7065428576       11.4858219571       11.4149953606
  B         8.5093470582       10.7824499905       12.6174129810
  B         7.9782453746       13.5346219759       10.0829472858
  B         9.6583475797        9.0990851838       13.1791122655
  B        10.8035796700        7.8601035037       13.1646671234
  B        11.0396750215        8.6282960291       11.4399588034
  B        11.3722033356       10.9003138719        7.3208479193
  B        10.7813004941        9.9583448745        8.7165137154
  B        10.9452673637        8.5299674125        9.6630266530
  B        10.0653166278       10.3837282422       12.5033233216
  B         8.8169101044       13.5429246796        8.6365460607
  B         9.5674017128       11.2141553935        9.8129388579
  B        10.1998257876       11.5836163279        8.3641692534
  B        10.3825391247       12.0160731634        6.7716240276
  B        12.1348056193        7.5828383512       10.8630784742
  B         8.8733771390       12.4553518608        6.9760941981
  B        11.4405404195        6.4334422202       11.7110681118
  B         8.5737255014       12.1952976651       13.2746230879
  B         8.3651702805       12.7308528507       11.7281306638
  B        10.1189877718       12.7459028801       10.0222214050
      20
 i =        3, E =       -55.4665339663
  B         9.6577021721       11.5695298950       11.3703686129
  B         8.4821263310       10.7091631438       12.6181948057
  B         8.0857753053       13.4788304252       10.1317169871
  B         9.6624484324        9.0145854470       13.2067764645
  B        10.7921106186        7.7734029829       13.0734177895
  B        10.9340424174        8.6541070423       11.5204768092
  B        11.3285081846       10.8474668078        7.4006504967
  B        10.7892008932        9.9687117720        8.6988198919
  B        11.0564319814        8.5596500659        9.7395388736
  B        10.2191047603       10.4074789276       12.4307191065
  B         8.7881269779       13.4423797543        8.6248628658
  B         9.6064960463       11.1160327493        9.8050103254
  B        10.2100384496       11.5967597210        8.3522875756
  B        10.3624906187       12.0030208872        6.7455297416
  B        12.1007138396        7.5886438743       10.7017786787
  B         8.9205819689       12.5536692446        7.0858444808
  B        11.4178738949        6.5343002128       11.8187595168
  B         8.5453399558       12.2713929593       13.2793652713
  B         8.3617682547       12.7979690384       11.6331699973
  B        10.0122279938       12.7760908555       10.0259644944
      20
 i =        4, E =       -55.5713269389
  B         9.6114236471       11.6201642299       11.3612436527
  B         8.5143122812       10.6357948889       12.6540664357
  B         8.2022549649       13.4293792338       10.1361386525
  B         9.6686589835        8.9619795797       13.2015579739
  B        10.7756230580        7.6456857785       12.9722965517
  B        10.8343193731        8.6852305570       11.6001627813
  B        11.2741162943       10.8138072354        7.4269485553
  B        10.7925450735        9.9573171055        8.7154169987
  B        11.1853158224        8.6140287329        9.8138618942
  B        10.3198966563       10.4398119435       12.3236577819
  B         8.7463021631       13.3293158479        8.6227500879
  B         9.6648934866       11.0305689846        9.8035379262
  B        10.1948353679       11.6239084443        8.3577401335
  B        10.3507884765       11.9657605471        6.7277178404
  B        12.0113761855        7.5767880736       10.5689058857
  B         9.0028333092       12.6581399095        7.2094094998
  B        11.4080930676        6.7252498622       11.9226550763
  B         8.5140467559       12.3058221369       13.2357571220
  B         8.3889786045       12.8659969236       11.5691214422
  B         9.8725019538       12.7783957511       10.0403137817
      20
 i =        5, E =       -55.6640226100
  B         9.5889287751       11.6188992003       11.3671803927
  B         8.5857585799       10.5648178944       12.7274249771
  B         8.2877487706       13.4133842202       10.0918568334
  B         9.6809662903        8.9528547864       13.1445975675
  B        10.6824689462        7.6132701350       12.9804889111
  B        10.7671299560        8.7127001979       11.6499950001
  B        11.2101690926       10.7890858908        7.4194853527
  B        10.7861727672        9.9464397186        8.7593540627
  B        11.2373217971        8.7599300662        9.8270076466
  B        10.3849606333       10.4330102789       12.2146307572
  B         8.6944383177       13.2389991797        8.6593636405
  B         9.7489714938       10.9728665262        9.8438054941
  B        10.1687417194       11.6678766006        8.3842828836
  B        10.3373432109       11.9290301062        6.7128884470
  B        11.9505276353        7.4889523976       10.5545001896
  B         9.1284434690       12.7211538475        7.2713941862
  B        11.4562988360        6.8836166940       11.8973477051
  B         8.4902104955       12.2876357136       13.1412336111
  B         8.4258081083       12.9398996185       11.5669045006
  B         9.7207585329       12.7287467138       10.0495347176
      20
 i =        6, E =       -55.7692767372
  B         9.5664926720       11.5547478642       11.4094242989
  B         8.7435532582       10.4923843486       12.8861372858
  B         8.3036081330       13.4808364715       10.0873675791
  B         9.6797219247        8.9804205809       13.0241475884
  B        10.5038198234        7.6005582106       13.0272519191
  B        10.7056900594        8.7289288271       11.7020307591
  B        11.1008895080       10.7250317433        7.3982283541
  B        10.7873377319        9.9897160526        8.7919535705
  B        11.3177368946        8.9256936808        9.9061094830
  B        10.4638869950       10.3921412925       12.0103143766
  B         8.6224722453       13.1352904525        8.6928838520
  B         9.9341652593       10.9011105399        9.9570568769
  B        10.1235324510       11.7373981349        8.4461704781
  B        10.3331108688       11.8575239547        6.6935153988
  B        11.8410671554        7.4417705378       10.4809859343
  B         9.3423866106       12.7971343414        7.3377382815
  B        11.5239431842        7.1000745046       11.8749848893
  B         8.4651848592       12.1885714131       12.9283715765
  B         8.4687936460       13.0664881343       11.5898814846
  B         9.5058264325       12.5674519235       10.0187817530
      20
 i =        7, E =       -55.8346928718
  B         9.4764555030       11.5384293907       11.4833962212
  B         8.9182673199       10.5066810049       12.9962552468
  B         8.2207239948       13.6288673791       10.1078852652
  B         9.6569057057        9.0244587940       12.9622873171
  B        10.3843984930        7.6391549086       13.0295689540
  B        10.7581364681        8.7045938328       11.6890103177
  B        11.0092276403       10.6664095966        7.3723792707
  B        10.7963490950       10.0297343347        8.8420686576
  B        11.3257139942        9.0435002152        9.9182706877
  B        10.4784564266       10.3036533427       11.8251692145
  B         8.5833437167       13.0787888550        8.6511391361
  B        10.1071945176       10.8950589698       10.0483904919
  B        10.0985195885       11.7490877937        8.5423316325
  B        10.3496907265       11.8107485278        6.6792449408
  B        11.7814639384        7.4705973051       10.4065773688
  B         9.4575804576       12.8731013561        7.3503364489
  B        11.5014329103        7.2359811747       11.9743005970
  B         8.4801191436       12.0202332944       12.7319749503
  B         8.5230486288       13.1204802360       11.6294071550
  B         9.4263181112       12.3237162959       10.0234440481
      20
 i =        8, E =       -55.8806918999
  B         9.4696017928       11.5208885135       11.4849659229
  B         8.9349419694       10.5752224105       12.9579779246
  B         8.2071761328       13.6163012394       10.1151963023
  B         9.6621741134        9.0799866812       12.9711649999
  B        10.4200481261        7.6788258894       13.0167366080
  B        10.8303423300        8.6699901454       11.6446241606
  B        11.0239614397       10.6447430719        7.3986430031
  B        10.8080803306       10.0586996538        8.7862171284
  B        11.3014170744        8.9482726235        9.9179783593
  B        10.4001114905       10.2514008422       11.8554756442
  B         8.6146283106       13.1360898062        8.6719201402
  B        10.1054534705       10.9324900970       10.0714951377
  B        10.1096199521       11.7018340452        8.5499131995
  B        10.3505934563       11.8585337756        6.6857656997
  B        11.7839746132        7.5524771809       10.4798932479
  B         9.4060741058       12.8402403187        7.3014138745
  B        11.4755429451        7.1509328034       11.9604513190
  B         8.4854773605       11.9905111357       12.7661547351
  B         8.5157448749       13.0760445704       11.6183776356
  B         9.4283940394       12.3797649518       10.0090440473
      20
 i =        9, E =       -55.9025313920
  B         9.4468999915       11.5116429231       11.4827583101
  B         8.9866196092       10.5794708432       12.9413507403
  B         8.2147747471       13.6000991829       10.1312353603
  B         9.6789625903        9.1176061676       12.9636379982
  B        10.4398298859        7.6995495266       12.9971705410
  B        10.8677969141        8.6475638729       11.6264499978
  B        11.0119235333       10.6517457767        7.3784469901
  B        10.8244500721       10.0601227902        8.8037643066
  B        11.2914907443        8.9087369664        9.9059258501
  B        10.3468043907       10.1993204202       11.8401753445
  B         8.6373126702       13.1760362263        8.6804514655
  B        10.1409235564       10.9377062707       10.1060602517
  B        10.1151049015       11.6708356144        8.5476344246
  B        10.3778901859       11.8520610451        6.6950111307
  B        11.7717315945        7.6151300679       10.5282139945
  B         9.3641324051       12.8433978953        7.3063827166
  B        11.4503019065        7.1066339353       11.9660053044
  B         8.4721451603       12.0138586559       12.7691401725
  B         8.5062263814       13.0507129920       11.5914087636
  B         9.3880591500       12.4210175494       10.0021843125
      20
 i =       10, E =       -55.9159757736
  B         9.4081180160       11.5035447827       11.4868004595
  B         9.0497686354       10.6023780506       12.9358938157
  B         8.2096199511       13.6091762571       10.1360335315
  B         9.7111178718        9.1174414247       12.9537341577
  B        10.4353885134        7.7232815679       12.9893652394
  B        10.8885305095        8.6329927875       11.6221573608
  B        10.9926974459       10.6389106716        7.3689437101
  B        10.8464136642       10.0643534502        8.8350607735
  B        11.2797808013        8.9180884308        9.8759811192
  B        10.3022722368       10.1591846665       11.7778839399
  B         8.6453799063       13.2183000853        8.6868969006
  B        10.1975597829       10.9472525214       10.1452970476
  B        10.1163826613       11.6446696301        8.5523973752
  B        10.3806348444       11.8664210811        6.7091246869
  B        11.7665520499        7.6412779708       10.5729158778
  B         9.3599958362       12.8379282028        7.3100362545
  B        11.4287166852        7.0801299924       11.9766075154
  B         8.4628544749       12.0193874329       12.7552135254
  B         8.4971891712       13.0322802771       11.5693173567
  B         9.3544374670       12.4062278070       10.0037604335
      20
 i =       11, E =       -55.9258662075
  B         9.3601542131       11.4918919035       11.4762650171
  B         9.1265836038       10.6269437036       12.9304789490
  B         8.2094185883       13.6243182851       10.1162802281
  B         9.7610867554        9.1168052417       12.9434109345
  B        10.4329030440        7.7146811380       13.0025753075
  B        10.8732619600        8.6402034273       11.6455319528
  B        10.9613083514       10.6278266579        7.3676820185
  B        10.8746699303       10.0877942829        8.8544984507
  B        11.2874463975        8.9097327199        9.8577994921
  B        10.2478367772       10.1340193821       11.6732671160
  B         8.6534062065       13.2792483032        8.6877409613
  B        10.2632822424       10.9692424569       10.1712735465
  B        10.1133307934       11.6180111701        8.5556824048
  B        10.3863254195       11.8686453916        6.7364043747
  B        11.7772054162        7.6464138096       10.5978151450
  B         9.3538725335       12.8358774946        7.3462338732
  B        11.4068302711        7.0502617188       11.9858995798
  B         8.4475130815       12.0393502618       12.7619623221
  B         8.4703110741       13.0076107657       11.5457527258
  B         9.3266738929       12.3744159665       10.0069147572
      20
 i =       12, E =       -55.9306408006
  B         9.3230486982       11.4911844640       11.4553530637
  B         9.1535228208       10.6553582737       12.9215405619
  B         8.2108200979       13.6286302364       10.1185829077
  B         9.8038215176        9.1418249181       12.9404479206
  B        10.4453701927        7.6883451543       13.0278353321
  B        10.8599615594        8.6218752122       11.6627122674
  B        10.9539701874       10.6237250968        7.3691256948
  B        10.9045064794       10.0826533067        8.8752287815
  B        11.2970434156        8.8913723620        9.8399363248
  B        10.1984415785       10.1198948537       11.6373080196
  B         8.6641471746       13.3330441919        8.6806323918
  B        10.2790718754       11.0112869505       10.1410427970
  B        10.1120043890       11.6012300872        8.5523868175
  B        10.3719463438       11.8851423277        6.7644987228
  B        11.7977006330        7.6272397939       10.6205237764
  B         9.3524224239       12.8201956861        7.3672433221
  B        11.3937623520        7.0250481956       11.9746123153
  B         8.4573564249       12.0464502136       12.7972328343
  B         8.4252659656       12.9880047561       11.5209681879
  B         9.3291892588       12.3807913396        9.9962895884
      20
 i =       13, E =       -55.9336137387
  B         9.3039452605       11.4920219726       11.4441735771
  B         9.1609942860       10.6654897759       12.9225580249
  B         8.2097203348       13.6362401780       10.1087687908
  B         9.8297723030        9.1433405516       12.9452930593
  B        10.4459206939        7.6858268575       13.0428363743
  B        10.8521635565        8.6092092937       11.6655856727
  B        10.9552683562       10.6196372776        7.3752427981
  B        10.9186460548       10.0841823833        8.8694518805
  B        11.3118284326        8.8658879575        9.8450019280
  B        10.1808405084       10.1128651876       11.6221884532
  B         8.6647259171       13.3597048180        8.6835838466
  B        10.2750833728       11.0339410300       10.1307067573
  B        10.1102212726       11.5966535503        8.5496492004
  B        10.3675755825       11.8833072067        6.7744145252
  B        11.8068081408        7.6202315413       10.6165139010
  B         9.3509158809       12.8221235399        7.3770621692
  B        11.3871178631        7.0151360729       11.9755648701
  B         8.4700668701       12.0542109324       12.7994790847
  B         8.3975614363       12.9708314857       11.5319096974
  B         9.3341975835       12.3924471431        9.9835180329
      20
 i =       14, E =       -55.9354281586
  B         9.2925919190       11.4898295999       11.4342064121
  B         9.1650184093       10.6657694754       12.9268441481
  B         8.2054113099       13.6427856571       10.1141705646
  B         9.8452553850        9.1478904745       12.9546275781
  B        10.4472334985        7.6864301808       13.0526347816
  B        10.8468966578        8.5991437603       11.6589528736
  B        10.9602230234       10.6168751055        7.3794578199
  B        10.9299186091       10.0800889462        8.8660582935
  B        11.3244319369        8.8507013202        9.8483610971
  B        10.1735483140       10.1079104937       11.6132621025
  B         8.6637514265       13.3777611688        8.6811388439
  B        10.2653879089       11.0471261452       10.1280827896
  B        10.1090115030       11.5951222153        8.5459235896
  B        10.3644319984       11.8751041156        6.7788296317
  B        11.8130378048        7.6068706333       10.6139017127
  B         9.3504611534       12.8319495325        7.3833089338
  B        11.3822616572        7.0120664975       11.9790229080
  B         8.4841784837       12.0547237389       12.7983946933
  B         8.3714308276       12.9679667197       11.5356008206
  B         9.3389016462       12.4071694394        9.9707404120
      20
 i =       15, E =       -55.9376519968
  B         9.2640638990       11.4801478667       11.4084901081
  B         9.1865588802       10.6600917417       12.9361536247
  B         8.1934983632       13.6601063334       10.1192011133
  B         9.8773752503        9.1673979937       12.9762005623
  B        10.4547703779        7.6906701740       13.0682964521
  B        10.8342249254        8.5800903123       11.6370790462
  B        10.9723699904       10.6082313276        7.3856362981
  B        10.9563507849       10.0691881158        8.8718590766
  B        11.3528730954        8.8232628846        9.8519484617
  B        10.1591812062       10.0919819808       11.5828381572
  B         8.6533580532       13.4287983773        8.6903933728
  B        10.2525607455       11.0661890712       10.1292989706
  B        10.1084597625       11.5869550217        8.5363180307
  B        10.3473623885       11.8606043090        6.7919969613
  B        11.8227335836        7.5714877970       10.6164471610
  B         9.3626281805       12.8545065804        7.3880201264
  B        11.3694403562        7.0055954235       11.9922618923
  B         8.5121865127       12.0544712106       12.7931525868
  B         8.3118084515       12.9657224511       11.5417278463
  B         9.3416214765       12.4377717944        9.9462629389
      20
 i =       16, E =       -55.9384166454
  B         9.2389598445       11.4708017353       11.3919788171
  B         9.2015940498       10.6668421801       12.9357552601
  B         8.1775452170       13.6731855077       10.1350833646
  B         9.9034657293        9.1744150295       12.9866193123
  B        10.4607155838        7.7091191003       13.0742757740
  B        10.8234885483        8.5671631269       11.6193230916
  B        10.9821877584       10.6050636551        7.3865000467
  B        10.9733593083       10.0611994204        8.8871918025
  B        11.3726172861        8.8086784319        9.8533943201
  B        10.1544444649       10.0812023379       11.5621517395
  B         8.6528521437       13.4641349066        8.6742649851
  B        10.2499694180       11.0693610746       10.1218139641
  B        10.1124379849       11.5753493031        8.5314844247
  B        10.3331625757       11.8426907242        6.8011287862
  B        11.8209605403        7.5420924597       10.6248602211
  B         9.3671760161       12.8872107301        7.4072636721
  B        11.3649569215        6.9999393508       12.0014682178
  B         8.5286484726       12.0491528788       12.7871953027
  B         8.2755360285       12.9648481173       11.5456134312
  B         9.3393977213       12.4507812412        9.9362182502
      20
 i =       17, E =       -55.9391834244
  B         9.2448525556       11.4696548965       11.3948284132
  B         9.2007790027       10.6637002796       12.9329212742
  B         8.1792748830       13.6693080320       10.1317668061
  B         9.8947708116        9.1764262176       12.9815935889
  B        10.4624913394        7.7089697358       13.0688383756
  B        10.8256425927        8.5714247948       11.6202482115
  B        10.9815782333       10.6056020456        7.3869006919
  B        10.9685053796       10.0630952687        8.8864195483
  B        11.3679027595        8.8144573817        9.8531036075
  B        10.1597910119       10.0850257942       11.5676277966
  B         8.6507285630       13.4579932646        8.6813835911
  B        10.2517583395       11.0621819490       10.1251184607
  B        10.1138756799       11.5752627714        8.5325290070
  B        10.3312301864       11.8469204134        6.7996612081
  B        11.8163690351        7.5471400382       10.6241538043
  B         9.3716673523       12.8829266471        7.4024652353
  B        11.3669191466        7.0018836077       12.0029892374
  B         8.5209737276       12.0493742931       12.7870409050
  B         8.2877554627       12.9679888936       11.5428733046
  B         9.3366031887       12.4438870512        9.9411008096
      20
 i =       18, E =       -55.9396804721
  B         9.2421859450       11.4646127634       11.3920453856
  B         9.2045058006       10.6650781666       12.9271748573
  B         8.1766972635       13.6679893596       10.1299384992
  B         9.8941880944        9.1813322195       12.9768428879
  B        10.4674331330        7.7154686243       13.0660020970
  B        10.8242780393        8.5717914422       11.6167004943
  B        10.9836637671       10.6061915214        7.3880167405
  B        10.9690570697       10.0630364793        8.8895958441
  B        11.3684384207        8.8153338671        9.8531045430
  B        10.1644142828       10.0877820609       11.5678374133
  B         8.6485846268       13.4640523427        8.6870765151
  B        10.2526795951       11.0557058691       10.1251992754
  B        10.1175012977       11.5704126754        8.5327474844
  B        10.3231829449       11.8457597985        6.8027217635
  B        11.8094058703        7.5436116310       10.6253082877
  B         9.3794017072       12.8883351218        7.4053719314
  B        11.3684977052        7.0011223092       12.0074430827
  B         8.5154968224       12.0482445712       12.7860600383
  B         8.2922281713       12.9693676833       11.5408595858
  B         9.3316317406       12.4379651753        9.9434834136
      20
 i =       19, E =       -55.9402148659
  B         9.2308302311       11.4558379319       11.3837936560
  B         9.2118328975       10.6701406365       12.9179205459
  B         8.1700452001       13.6679057690       10.1299873839
  B         9.9003503889        9.1900958859       12.9707582744
  B        10.4767449212        7.7279003026       13.0670530929
  B        10.8197753312        8.5688415735       11.6093751002
  B        10.9887112462       10.6064255609        7.3909495395
  B        10.9749379661       10.0617103541        8.8928084239
  B        11.3734600080        8.8096418275        9.8543951951
  B        10.1705582782       10.0915808264       11.5647995900
  B         8.6477786262       13.4812236583        8.6923712073
  B        10.2509672496       11.0497998534       10.1231461261
  B        10.1235408737       11.5611750971        8.5332623483
  B        10.3084352364       11.8398313793        6.8104027422
  B        11.7989087628        7.5329738938       10.6250763059
  B         9.3913651640       12.9026900547        7.4171501415
  B        11.3699944361        6.9983595749       12.0155598360
  B         8.5100002947       12.0469219177       12.7831125476
  B         8.2920197346       12.9681913652       11.5396506844
  B         9.3232247659       12.4318847572        9.9419024464
      20
 i =       20, E =       -55.9408435164
  B         9.2051606473       11.4435392982       11.3693165023
  B         9.2188590668       10.6789539115       12.9056828985
  B         8.1603533354       13.6651816234       10.1339164453
  B         9.9125179433        9.2049353609       12.9606427410
  B        10.4950459349        7.7443467781       13.0797857638
  B        10.8139261600        8.5630406289       11.6009852859
  B        10.9948476024       10.6091968459        7.3917020494
  B        10.9906951707       10.0522921585        8.8923840513
  B        11.3766369406        8.8011056122        9.8504502117
  B        10.1845676841       10.1040689242       11.5613509013
  B         8.6538624368       13.5107282394        8.7028145584
  B        10.2417931025       11.0456177606       10.1221989940
  B        10.1325857326       11.5500234969        8.5368161489
  B        10.2876403111       11.8290651242        6.8258714137
  B        11.7822416993        7.5094472349       10.6228448201
  B         9.4111742600       12.9216035937        7.4430520683
  B        11.3729994418        6.9975491642       12.0233467471
  B         8.5015526447       12.0431879047       12.7784826512
  B         8.2913460906       12.9647745134       11.5333199926
  B         9.3057043633       12.4243731728        9.9284484929
      20
 i =       21, E =       -55.9410583843
  B         9.1710377920       11.4316068660       11.3538448510
  B         9.2234268419       10.6833901146       12.8975992132
  B         8.1482539304       13.6672081491       10.1363913462
  B         9.9287579392        9.2151575955       12.9534511446
  B        10.5186072797        7.7637149445       13.0941667005
  B        10.8086455826        8.5600957396       11.5945713186
  B        11.0027972171       10.6058177437        7.3938593195
  B        11.0056181531       10.0472264064        8.8841717712
  B        11.3800091025        8.7780173549        9.8517707413
  B        10.2050553431       10.1192650821       11.5583287663
  B         8.6654976106       13.5438515664        8.7091701707
  B        10.2323591436       11.0397162794       10.1174551194
  B        10.1443266034       11.5388596241        8.5422344680
  B        10.2670920050       11.8241518529        6.8401146632
  B        11.7619059261        7.4929805402       10.6080177686
  B         9.4302405990       12.9397224578        7.4754136545
  B        11.3721194119        6.9988054480       12.0383896972
  B         8.4918325280       12.0423915350       12.7689372144
  B         8.2891725581       12.9566311014       11.5335817395
  B         9.2868019362       12.4143467524        9.9119253568
      20
 i =       22, E =       -55.9414526611
  B         9.1754125256       11.4339903214       11.3567711025
  B         9.2191128954       10.6809636248       12.9025533314
  B         8.1516158766       13.6680092064       10.1358902868
  B         9.9267703326        9.2115379548       12.9575491932
  B        10.5146865474        7.7589927874       13.0948930761
  B        10.8114678979        8.5615359478       11.5980762928
  B        10.9992269059       10.6070890428        7.3904183330
  B        11.0030217195       10.0457349342        8.8844222346
  B        11.3760673480        8.7833939120        9.8479425911
  B        10.2022079397       10.1185554776       11.5602374054
  B         8.6657820679       13.5375066501        8.7078317708
  B        10.2329311353       11.0424776021       10.1182078133
  B        10.1425081593       11.5432671383        8.5412620812
  B        10.2764220221       11.8258638135        6.8367941805
  B        11.7660352526        7.4943768282       10.6120952280
  B         9.4243423613       12.9326531383        7.4702873482
  B        11.3725920598        7.0004290702       12.0311679540
  B         8.4954112697       12.0409596679       12.7719483884
  B         8.2873496208       12.9584127254       11.5325571229
  B         9.2905935264       12.4172511545        9.9125251646
      20
 i =       23, E =       -55.9416516816
  B         9.1705114839       11.4319630751       11.3555518384
  B         9.2154858337       10.6779234451       12.9061175375
  B         8.1521689176       13.6701076250       10.1362920883
  B         9.9286700355        9.2114973222       12.9608627401